[
    {
      "name": "Water",
      "formula": "H2O",
      "molar_mass": 18.015,
      "boiling_point": 100.0,
      "density": 1.0
    },
    {
      "name": "Ethanol",
      "formula": "C2H5OH",
      "molar_mass": 46.07,
      "boiling_point": 78.37,
      "density": 0.789
    },
    {
      "name": "Ethyl Acetate",
      "formula": "CH3COOC2H5",
      "molar_mass": 88.11,
      "boiling_point": 77.1,
      "density": 0.900
    },
    {
      "name": "Acetic Acid",
      "formula": "CH3COOH",
      "molar_mass": 60.05,
      "boiling_point": 118.1,
      "density": 1.05
    }
  ]